20
hi     Final energy   =   -1340.8212186691 Ry
Au       0.000000000   0.000000000  -0.024257701
Au       0.000000000   0.000000000   5.791756151
Au       2.883758000   0.000000000   2.883757590
Au       2.883758000   4.078250000   2.883741166
Au       0.000000000   4.078250000  -0.024220182
Au       0.000000000   4.078250000   5.791765567
Au       1.441877617   2.039124852   1.327140774
Au       4.325638304   2.039112867   4.440378004
Au       4.325638304   6.117387133   4.440378004
Au       1.441877617   6.117375148   1.327140774
Au       4.325638383   2.039124852   1.327140774
Au       1.441877696   2.039112867   4.440378004
Au       1.441877696   6.117387133   4.440378004
Au       4.325638383   6.117375148   1.327140774
Au       0.000000000   0.000000000   2.883757475
Au       2.883758000   0.000000000  -0.024257843
Au       2.883758000   0.000000000   5.791756271
Au       2.883758000   4.078250000  -0.024220343
Au       2.883758000   4.078250000   5.791765659
Au       0.000000000   4.078250000   2.883741079
