18
     Final energy   =   -1116.1938799212 Ry
Au       0.000000000   0.000210890  -0.158289828
Au       0.000000000  -0.005015777   7.329044440
Au       2.883758000   1.647901521   2.330634369
Au       0.000000000   3.358721175   4.773962375
Au       2.883758000  -0.000378483  -0.153575135
Au       2.883758000  -0.010125701   7.129831684
Au       0.000000000   1.677110748   2.321999511
Au       2.883758000   3.325259181   4.674605884
Au       1.435555922   4.162407257   2.302459249
Au       4.347082445   0.825481374   4.745305191
Au       1.441848953   2.496585114  -0.158019910
Au       1.473145928   2.497113200   7.136466437
Au       4.331960078   4.162407257   2.302459249
Au       1.420433555   0.825481374   4.745305191
Au       4.325667047   2.496585114  -0.158019910
Au       4.294370072   2.497113200   7.136466437
C        0.000000000   0.019439759   9.344565041
O        0.000000000  -0.007403203  10.494887725
