14
 Final energy   =    -938.5459254694 Ry
Au       2.883758000   0.269743383  -0.061449397
Au       0.000000000   4.821372555  -1.433214376
Au       2.883758000   2.242355957  -3.561607193
Au       0.000000000  -0.269757359  -4.933373491
Au       0.000000000   0.269742853  -0.061447690
Au       2.883758000   4.821373694  -1.433215920
Au       0.000000000   2.242354840  -3.561609948
Au       2.883758000  -0.269760250  -4.933372001
Au       4.325639790   2.581039484  -0.706894105
Au       1.441876258  -0.000007247  -2.497414202
Au       4.325637769   4.482686927  -4.287930685
Au       1.441876210   2.581039484  -0.706894105
Au       4.325639742  -0.000007247  -2.497414202
Au       1.441878231   4.482686927  -4.287930685
