16
     Final energy   =    -981.9697785553 Ry
Au       2.883758000   0.193936419  -0.013221479
Au       0.000000000   4.857435567  -1.552192624
Au       2.883758000   2.259187446  -3.712996885
Au       0.000000000  -0.259316602  -4.904899135
Au       0.000000000   0.303423051  -0.136200713
Au       2.883758000   4.819785293  -1.584394087
Au       0.000000000   2.261455579  -3.696454710
Au       2.883758000  -0.262558295  -4.999088955
Au       4.320726642   2.565544899  -0.934204189
Au       1.481532272   0.055137155  -2.515436919
Au       4.322098535   4.491193260  -4.431551729
Au       1.446789358   2.565544899  -0.934204189
Au       4.285983728   0.055137155  -2.515436919
Au       1.445417465   4.491193260  -4.431551729
C        2.883758000  -0.034177303   1.923625913
O        2.883758000  -0.108069781   3.074440350
