22
     Final energy   =   -1384.2320995451 Ry
Au       2.897306857   4.607886691  -0.556547341
Au      -0.002319344   7.264984607   0.218252270
Au       0.028711896   1.303714555   2.751117170
Au       2.858432661   3.970075042   3.849469460
Au      -0.006194726   6.728709934   3.896183805
Au      -0.013539857   4.607885691  -0.556551341
Au       2.886086344   7.264985607   0.218256270
Au       2.855055104   1.303715555   2.751121170
Au       0.025334339   3.970074042   3.849465460
Au       2.889961726   6.728710934   3.896187805
Au       4.325642000  -0.196139430   0.825936296
Au       1.441884000   2.569488895   0.625145184
Au       4.325642000   5.354078735   1.848612406
Au       1.441884000   9.018638176   4.212416926
Au       1.441884000   1.981793164   5.305246864
Au       1.441884000  -0.184927059   0.748214036
Au       4.325642000   2.556862753   0.657934683
Au       1.441884000   5.367038562   1.831500451
Au       4.325642000   9.032470213   4.250615682
Au       4.325642000   1.987406839   5.102583340
C        1.441884000   1.692422708   7.248882061
O        1.441884000   1.585845785   8.396255347
